{
  "total_records": 316434,
  "table_structure": [
    {
      "cid": 0,
      "name": "Formula",
      "type": "TEXT",
      "notnull": 0,
      "dflt_value": null,
      "pk": 0
    },
    {
      "cid": 1,
      "name": "Structure",
      "type": "TEXT",
      "notnull": 0,
      "dflt_value": null,
      "pk": 0
    },
    {
      "cid": 2,
      "name": "FirstName",
      "type": "TEXT",
      "notnull": 0,
      "dflt_value": null,
      "pk": 0
    },
    {
      "cid": 3,
      "name": "SecondName",
      "type": "TEXT",
      "notnull": 0,
      "dflt_value": null,
      "pk": 0
    },
    {
      "cid": 4,
      "name": "Phase",
      "type": "TEXT",
      "notnull": 0,
      "dflt_value": null,
      "pk": 0
    },
    {
      "cid": 5,
      "name": "CAS",
      "type": "TEXT",
      "notnull": 0,
      "dflt_value": null,
      "pk": 0
    },
    {
      "cid": 6,
      "name": "MeltingPoint",
      "type": "REAL",
      "notnull": 0,
      "dflt_value": null,
      "pk": 0
    },
    {
      "cid": 7,
      "name": "BoilingPoint",
      "type": "REAL",
      "notnull": 0,
      "dflt_value": null,
      "pk": 0
    },
    {
      "cid": 8,
      "name": "Density",
      "type": "REAL",
      "notnull": 0,
      "dflt_value": null,
      "pk": 0
    },
    {
      "cid": 9,
      "name": "Solubility",
      "type": "REAL",
      "notnull": 0,
      "dflt_value": null,
      "pk": 0
    },
    {
      "cid": 10,
      "name": "Color",
      "type": "INTEGER",
      "notnull": 0,
      "dflt_value": null,
      "pk": 0
    },
    {
      "cid": 11,
      "name": "H298",
      "type": "REAL",
      "notnull": 0,
      "dflt_value": null,
      "pk": 0
    },
    {
      "cid": 12,
      "name": "S298",
      "type": "REAL",
      "notnull": 0,
      "dflt_value": null,
      "pk": 0
    },
    {
      "cid": 13,
      "name": "Tmin",
      "type": "REAL",
      "notnull": 0,
      "dflt_value": null,
      "pk": 0
    },
    {
      "cid": 14,
      "name": "Tmax",
      "type": "REAL",
      "notnull": 0,
      "dflt_value": null,
      "pk": 0
    },
    {
      "cid": 15,
      "name": "f1",
      "type": "REAL",
      "notnull": 0,
      "dflt_value": null,
      "pk": 0
    },
    {
      "cid": 16,
      "name": "f2",
      "type": "REAL",
      "notnull": 0,
      "dflt_value": null,
      "pk": 0
    },
    {
      "cid": 17,
      "name": "f3",
      "type": "REAL",
      "notnull": 0,
      "dflt_value": null,
      "pk": 0
    },
    {
      "cid": 18,
      "name": "f4",
      "type": "REAL",
      "notnull": 0,
      "dflt_value": null,
      "pk": 0
    },
    {
      "cid": 19,
      "name": "f5",
      "type": "REAL",
      "notnull": 0,
      "dflt_value": null,
      "pk": 0
    },
    {
      "cid": 20,
      "name": "f6",
      "type": "REAL",
      "notnull": 0,
      "dflt_value": null,
      "pk": 0
    },
    {
      "cid": 21,
      "name": "ReliabilityClass",
      "type": "INTEGER",
      "notnull": 0,
      "dflt_value": null,
      "pk": 0
    },
    {
      "cid": 22,
      "name": "Reference",
      "type": "TEXT",
      "notnull": 0,
      "dflt_value": null,
      "pk": 0
    }
  ],
  "null_distribution": {
    "Formula": {
      "total_count": 316434,
      "non_null_count": 316434,
      "null_count": 0,
      "null_percentage": 316334.0
    },
    "Structure": {
      "total_count": 316434,
      "non_null_count": 83763,
      "null_count": 232671,
      "null_percentage": 316407.53
    },
    "FirstName": {
      "total_count": 316434,
      "non_null_count": 308429,
      "null_count": 8005,
      "null_percentage": 316336.53
    },
    "SecondName": {
      "total_count": 316434,
      "non_null_count": 94997,
      "null_count": 221437,
      "null_percentage": 316403.98
    },
    "Phase": {
      "total_count": 316434,
      "non_null_count": 316389,
      "null_count": 45,
      "null_percentage": 316334.01
    },
    "CAS": {
      "total_count": 316434,
      "non_null_count": 244835,
      "null_count": 71599,
      "null_percentage": 316356.63
    },
    "MeltingPoint": {
      "total_count": 316434,
      "non_null_count": 316434,
      "null_count": 0,
      "null_percentage": 316334.0
    },
    "BoilingPoint": {
      "total_count": 316434,
      "non_null_count": 316434,
      "null_count": 0,
      "null_percentage": 316334.0
    },
    "Density": {
      "total_count": 316434,
      "non_null_count": 316434,
      "null_count": 0,
      "null_percentage": 316334.0
    },
    "Solubility": {
      "total_count": 316434,
      "non_null_count": 316434,
      "null_count": 0,
      "null_percentage": 316334.0
    },
    "Color": {
      "total_count": 316434,
      "non_null_count": 316434,
      "null_count": 0,
      "null_percentage": 316334.0
    },
    "H298": {
      "total_count": 316434,
      "non_null_count": 316434,
      "null_count": 0,
      "null_percentage": 316334.0
    },
    "S298": {
      "total_count": 316434,
      "non_null_count": 316434,
      "null_count": 0,
      "null_percentage": 316334.0
    },
    "Tmin": {
      "total_count": 316434,
      "non_null_count": 316434,
      "null_count": 0,
      "null_percentage": 316334.0
    },
    "Tmax": {
      "total_count": 316434,
      "non_null_count": 316434,
      "null_count": 0,
      "null_percentage": 316334.0
    },
    "f1": {
      "total_count": 316434,
      "non_null_count": 316434,
      "null_count": 0,
      "null_percentage": 316334.0
    },
    "f2": {
      "total_count": 316434,
      "non_null_count": 316434,
      "null_count": 0,
      "null_percentage": 316334.0
    },
    "f3": {
      "total_count": 316434,
      "non_null_count": 316434,
      "null_count": 0,
      "null_percentage": 316334.0
    },
    "f4": {
      "total_count": 316434,
      "non_null_count": 316434,
      "null_count": 0,
      "null_percentage": 316334.0
    },
    "f5": {
      "total_count": 316434,
      "non_null_count": 316434,
      "null_count": 0,
      "null_percentage": 316334.0
    },
    "f6": {
      "total_count": 316434,
      "non_null_count": 316434,
      "null_count": 0,
      "null_percentage": 316334.0
    },
    "ReliabilityClass": {
      "total_count": 316434,
      "non_null_count": 316434,
      "null_count": 0,
      "null_percentage": 316334.0
    },
    "Reference": {
      "total_count": 316434,
      "non_null_count": 316296,
      "null_count": 138,
      "null_percentage": 316334.04
    }
  },
  "reliability_distribution": [
    {
      "ReliabilityClass": 0,
      "count": 697,
      "percentage": 0.22
    },
    {
      "ReliabilityClass": 1,
      "count": 236236,
      "percentage": 74.66
    },
    {
      "ReliabilityClass": 2,
      "count": 73808,
      "percentage": 23.32
    },
    {
      "ReliabilityClass": 3,
      "count": 5664,
      "percentage": 1.79
    },
    {
      "ReliabilityClass": 4,
      "count": 18,
      "percentage": 0.01
    },
    {
      "ReliabilityClass": 5,
      "count": 11,
      "percentage": 0.0
    }
  ],
  "formula_statistics": {
    "total_records": 316434,
    "unique_formulas": 32790,
    "unique_trimmed_formulas": 32790,
    "formulas_with_parentheses": 272647,
    "ionic_formulas": 25131,
    "duplicate_ratio": 89.64
  },
  "temperature_statistics": {
    "total_records": 316434,
    "has_tmin": 316434,
    "has_tmax": 316434,
    "null_tmin": 0,
    "null_tmax": 0,
    "both_temp_defined": 316434,
    "min_temp": 0.00015,
    "max_temp": 100000.0,
    "null_tmin_percentage": 0.0,
    "null_tmax_percentage": 0.0
  },
  "temperature_distribution": {
    "< 100K": 6629,
    "100K - 298K": 64580,
    "298K - 500K": 155370,
    "500K - 1000K": 40115,
    "1000K - 2000K": 38006,
    "> 2000K": 11734
  },
  "phase_statistics": {
    "phase_distribution": [
      {
        "Phase": "g",
        "count": 173737,
        "percentage": 54.9
      },
      {
        "Phase": "l",
        "count": 52753,
        "percentage": 16.67
      },
      {
        "Phase": "s",
        "count": 50708,
        "percentage": 16.02
      },
      {
        "Phase": "a",
        "count": 21778,
        "percentage": 6.88
      },
      {
        "Phase": "ao",
        "count": 9834,
        "percentage": 3.11
      },
      {
        "Phase": "ai",
        "count": 7563,
        "percentage": 2.39
      },
      {
        "Phase": null,
        "count": 45,
        "percentage": 0.01
      },
      {
        "Phase": "?",
        "count": 8,
        "percentage": 0.0
      },
      {
        "Phase": "9",
        "count": 4,
        "percentage": 0.0
      },
      {
        "Phase": "2",
        "count": 3,
        "percentage": 0.0
      },
      {
        "Phase": "aq",
        "count": 1,
        "percentage": 0.0
      }
    ],
    "transition_stats": {
      "total_records": 316434,
      "has_melting_point": 316434,
      "has_boiling_point": 316434,
      "has_transition_data": 316434,
      "melting_point_percentage": 100.0,
      "boiling_point_percentage": 100.0,
      "any_transition_percentage": 100.0
    }
  },
  "thermodynamic_statistics": {
    "individual_properties": {
      "H298": {
        "has_value": 316434,
        "percentage": 100.0
      },
      "S298": {
        "has_value": 316434,
        "percentage": 100.0
      },
      "f1": {
        "has_value": 316434,
        "percentage": 100.0
      },
      "f2": {
        "has_value": 316434,
        "percentage": 100.0
      },
      "f3": {
        "has_value": 316434,
        "percentage": 100.0
      },
      "f4": {
        "has_value": 316434,
        "percentage": 100.0
      },
      "f5": {
        "has_value": 316434,
        "percentage": 100.0
      },
      "f6": {
        "has_value": 316434,
        "percentage": 100.0
      }
    },
    "complete_f_sets": {
      "count": 316434,
      "percentage": 100.0
    }
  }
}